Sacrifical Network

633 atoms
1984 bonds
1 atom types
1 bond types
-15 15 xlo xhi
-15 15 ylo yhi
-0.75 0.75 zlo zhi

Atoms

1 1 1 0.5 1 -9.44171 -12.1738 0
2 1 1 0.5 1 11.1904 -12.4013 0
3 1 1 0.5 1 -3.97078 12.0738 0
4 1 1 0.5 1 6.64505 -1.40645 0
5 1 1 0.5 1 -13.7252 -13.9467 0
6 1 1 0.5 1 10.2716 -14.1178 0
7 1 1 0.5 1 -13.715 0.438731 0
8 1 1 0.5 1 -9.00841 10.7434 0
9 1 1 0.5 1 2.34716 -12.4721 0
10 1 1 0.5 1 -8.76622 -13.7848 0
11 1 1 0.5 1 -4.67222 13.9286 0
12 1 1 0.5 1 -10.4739 -13.0198 0
13 1 1 0.5 1 -5.36205 -7.7322 0
14 1 1 0.5 1 -7.29397 3.23319 0
15 1 1 0.5 1 -4.66434 9.8644 0
16 1 1 0.5 1 -6.18138 14.045 0
17 1 1 0.5 1 6.69231 13.6149 0
18 1 1 0.5 1 12.086 -9.70373 0
19 1 1 0.5 1 -5.84486 5.48702 0
20 1 1 0.5 1 -13.5067 13.9666 0
21 1 1 0.5 1 1.83767 3.55325 0
22 1 1 0.5 1 -7.9655 -8.856 0
23 1 1 0.5 1 9.39382 0.307068 0
24 1 1 0.5 1 1.63241 -4.38939 0
25 1 1 0.5 1 6.71925 -5.39108 0
26 1 1 0.5 1 11.4301 0.0490784 0
27 1 1 0.5 1 -13.7923 4.78843 0
28 1 1 0.5 1 -2.55803 8.28564 0
29 1 1 0.5 1 -7.53801 7.34715 0
30 1 1 0.5 1 -0.178712 -5.9723 0
31 1 1 0.5 1 -11.7271 -13.7787 0
32 1 1 0.5 1 -1.41647 10.8413 0
33 1 1 0.5 1 10.5212 7.27475 0
34 1 1 0.5 1 -10.2215 7.37153 0
35 1 1 0.5 1 9.10214 7.46748 0
36 1 1 0.5 1 -3.48134 0.801335 0
37 1 1 0.5 1 4.45021 -9.92486 0
38 1 1 0.5 1 -2.55792 -1.49171 0
39 1 1 0.5 1 -12.5158 6.42483 0
40 1 1 0.5 1 -7.71601 -7.61187 0
41 1 1 0.5 1 3.58662 -2.03465 0
42 1 1 0.5 1 12.7244 13.3815 0
43 1 1 0.5 1 -0.923927 -8.37502 0
44 1 1 0.5 1 -13.0203 11.1028 0
45 1 1 0.5 1 -2.06471 0.918281 0
46 1 1 0.5 1 14.6429 4.88632 0
47 1 1 0.5 1 10.1345 -8.82854 0
48 1 1 0.5 1 5.66355 -0.855994 0
49 1 1 0.5 1 10.0305 -3.05946 0
50 1 1 0.5 1 1.48375 12.4854 0
51 1 1 0.5 1 8.13069 -12.4001 0
52 2 1 0.5 1 -1.15027 -14.884 0
53 1 1 0.5 1 12.6547 1.71965 0
54 1 1 0.5 1 11.8004 -13.8569 0
55 1 1 0.5 1 14.861 -8.24731 0
56 1 1 0.5 1 -9.5191 -11.0608 0
57 1 1 0.5 1 12.4669 3.00652 0
58 1 1 0.5 1 7.20389 -9.00205 0
59 1 1 0.5 1 10.6338 10.9179 0
60 1 1 0.5 1 -11.0788 -2.39114 0
61 1 1 0.5 1 -10.5909 -3.66165 0
62 1 1 0.5 1 4.47143 -0.397486 0
63 1 1 0.5 1 2.94576 12.721 0
64 1 1 0.5 1 7.80252 11.3004 0
65 1 1 0.5 1 0.274077 0.322421 0
66 1 1 0.5 1 4.86842 -12.0016 0
67 1 1 0.5 1 3.9226 11.6639 0
68 1 1 0.5 1 -8.40756 3.30783 0
69 1 1 0.5 1 7.74926 2.88264 0
70 1 1 0.5 1 12.1064 11.0408 0
71 1 1 0.5 1 -2.25626 13.2066 0
72 1 1 0.5 1 7.9566 4.40524 0
73 2 1 0.5 1 -9.63582 14.5379 0
74 1 1 0.5 1 13.7093 9.9303 0
75 1 1 0.5 1 -4.47346 -6.95167 0
76 1 1 0.5 1 -4.43238 1.47229 0
77 1 1 0.5 1 -1.41027 6.11038 0
78 1 1 0.5 1 -7.34078 9.33135 0
79 1 1 0.5 1 -5.60326 9.49467 0
80 1 1 0.5 1 3.94546 -3.76856 0
81 1 1 0.5 1 -8.40682 12.5662 0
82 1 1 0.5 1 -12.8816 -8.27138 0
83 1 1 0.5 1 0.396251 1.92424 0
84 1 1 0.5 1 1.59649 5.80952 0
85 1 1 0.5 1 -9.52883 -8.84494 0
86 1 1 0.5 1 -4.32954 3.64172 0
87 1 1 0.5 1 -9.34741 -0.984768 0
88 1 1 0.5 1 4.47819 -13.17 0
89 1 1 0.5 1 -3.67425 -2.61134 0
90 1 1 0.5 1 8.76773 5.96261 0
91 1 1 0.5 1 0.8723 8.08536 0
92 1 1 0.5 1 -10.3293 9.15707 0
93 1 1 0.5 1 8.22235 9.87876 0
94 1 1 0.5 1 8.17007 1.92904 0
95 1 1 0.5 1 5.66693 -12.7014 0
96 1 1 0.5 1 2.09378 9.45551 0
97 1 1 0.5 1 -2.84688 7.13365 0
98 1 1 0.5 1 -3.08529 -6.33647 0
99 1 1 0.5 1 6.09972 5.43665 0
100 1 1 0.5 1 2.275 -0.235749 0
101 1 1 0.5 1 12.4345 7.12553 0
102 1 1 0.5 1 -12.8656 -6.90993 0
103 1 1 0.5 1 0.341731 -2.35575 0
104 1 1 0.5 1 -13.8927 -1.40417 0
105 1 1 0.5 1 -0.634075 8.05217 0
106 1 1 0.5 1 0.333068 -3.7218 0
107 1 1 0.5 1 -5.37407 3.13454 0
108 2 1 0.5 1 3.9769 -14.6395 0
109 1 1 0.5 1 13.8678 -11.555 0
110 1 1 0.5 1 4.93929 -5.39184 0
111 1 1 0.5 1 10.9034 -6.63682 0
112 1 1 0.5 1 11.7971 -4.61272 0
113 1 1 0.5 1 0.174782 -8.37155 0
114 1 1 0.5 1 -6.45111 -12.1116 0
115 1 1 0.5 1 -11.7277 4.97511 0
116 1 1 0.5 1 14.0838 -7.32223 0
117 1 1 0.5 1 -12.1417 -3.296 0
118 1 1 0.5 1 -3.52999 -10.7833 0
119 1 1 0.5 1 -9.16468 -2.30165 0
120 1 1 0.5 1 -11.5954 14.1398 0
121 1 1 0.5 1 0.302958 9.96219 0
122 1 1 0.5 1 -14.3604 -6.38083 0
123 1 1 0.5 1 13.2114 -5.45916 0
124 1 1 0.5 1 13.7271 12.8566 0
125 1 1 0.5 1 -0.649495 12.0981 0
126 1 1 0.5 1 -6.67319 10.504 0
127 1 1 0.5 1 -4.78816 -0.557848 0
128 1 1 0.5 1 -14.1892 -4.46974 0
129 1 1 0.5 1 -9.00992 1.38607 0
130 1 1 0.5 1 2.02825 -9.75941 0
131 1 1 0.5 1 9.79834 3.27187 0
132 1 1 0.5 1 -0.806275 2.49602 0
133 1 1 0.5 1 -4.7058 -3.8392 0
134 1 1 0.5 1 6.24048 2.05046 0
135 2 1 0.5 1 14.5354 -14.5219 0
136 1 1 0.5 1 9.98495 11.8135 0
137 1 1 0.5 1 3.82771 9.05645 0
138 1 1 0.5 1 0.309371 4.8152 0
139 1 1 0.5 1 -13.5489 -12.61 0
140 1 1 0.5 1 -1.43613 -13.2821 0
141 2 1 0.5 1 2.46768 -14.4916 0
142 1 1 0.5 1 -5.94317 -4.99584 0
143 1 1 0.5 1 -14.9724 9.86637 0
144 1 1 0.5 1 14.022 -1.83599 0
145 1 1 0.5 1 -11.456 -5.07526 0
146 2 1 0.5 1 1.17822 -14.4491 0
147 1 1 0.5 1 10.3079 -10.6657 0
148 1 1 0.5 1 9.27229 2.15241 0
149 1 1 0.5 1 0.539338 11.3817 0
150 1 1 0.5 1 7.44582 6.28678 0
151 2 1 0.5 1 -9.73129 -14.4799 0
152 1 1 0.5 1 -6.90746 4.68369 0
153 1 1 0.5 1 -2.52208 11.7669 0
154 1 1 0.5 1 -12.1892 -11.3896 0
155 2 1 0.5 1 -2.83069 14.3246 0
156 1 1 0.5 1 10.1555 9.63701 0
157 1 1 0.5 1 -5.87848 -5.99664 0
158 1 1 0.5 1 12.9358 5.41201 0
159 1 1 0.5 1 -0.925928 -4.63337 0
160 1 1 0.5 1 -6.55077 -14.0595 0
161 1 1 0.5 1 11.8311 -3.32876 0
162 1 1 0.5 1 -8.36407 2.29641 0
163 1 1 0.5 1 1.27727 -11.2611 0
164 1 1 0.5 1 -4.13127 -13.7308 0
165 1 1 0.5 1 7.77879 -5.28367 0
166 1 1 0.5 1 -5.85421 12.9602 0
167 1 1 0.5 1 7.3563 8.2788 0
168 1 1 0.5 1 -5.03498 -10.3318 0
169 1 1 0.5 1 4.66613 -8.41559 0
170 2 1 0.5 1 -5.25996 14.7985 0
171 1 1 0.5 1 -3.06511 3.39686 0
172 2 1 0.5 1 -12.4797 14.9655 0
173 1 1 0.5 1 1.17251 -8.10479 0
174 1 1 0.5 1 0.859285 13.9271 0
175 1 1 0.5 1 9.72377 -6.65274 0
176 1 1 0.5 1 6.92815 -7.965 0
177 1 1 0.5 1 12.2666 -2.28628 0
178 1 1 0.5 1 -5.5009 -1.39779 0
179 1 1 0.5 1 -4.42853 -5.3705 0
180 1 1 0.5 1 8.73195 -6.27845 0
181 1 1 0.5 1 -8.10857 4.49346 0
182 1 1 0.5 1 -10.2579 -9.9875 0
183 1 1 0.5 1 7.30677 -3.40382 0
184 1 1 0.5 1 5.45778 11.4236 0
185 1 1 0.5 1 -1.31658 -6.6314 0
186 1 1 0.5 1 11.7091 13.0923 0
187 1 1 0.5 1 2.8626 1.54881 0
188 1 1 0.5 1 -3.83689 -8.15941 0
189 1 1 0.5 1 9.23915 10.8338 0
190 1 1 0.5 1 -0.762132 -0.910327 0
191 1 1 0.5 1 -10.8342 0.4544 0
192 1 1 0.5 1 3.19631 -5.14293 0
193 1 1 0.5 1 -7.23774 -0.601574 0
194 1 1 0.5 1 4.56862 10.5001 0
195 1 1 0.5 1 -5.63388 4.22315 0
196 1 1 0.5 1 5.07426 2.27072 0
197 1 1 0.5 1 -11.6331 3.26451 0
198 1 1 0.5 1 -9.25542 -7.65231 0
199 2 1 0.5 1 -10.8594 -14.6962 0
200 1 1 0.5 1 -0.432704 -11.5284 0
201 1 1 0.5 1 -2.64078 10.3574 0
202 1 1 0.5 1 -7.46117 -9.76751 0
203 1 1 0.5 1 -8.69889 5.44427 0
204 1 1 0.5 1 10.5718 13.3508 0
205 1 1 0.5 1 -12.8883 -5.90002 0
206 1 1 0.5 1 -2.48373 -9.46192 0
207 1 1 0.5 1 14.9843 -10.9632 0
208 2 1 0.5 1 -3.37699 -14.6985 0
209 1 1 0.5 1 -0.830402 0.614298 0
210 1 1 0.5 1 -9.04043 8.16471 0
211 1 1 0.5 1 -7.15921 -2.57961 0
212 1 1 0.5 1 -12.8494 -2.40271 0
213 1 1 0.5 1 14.4905 11.3742 0
214 1 1 0.5 1 14.0403 -3.4414 0
215 1 1 0.5 1 4.12766 13.514 0
216 1 1 0.5 1 11.3075 8.83517 0
217 1 1 0.5 1 -5.85489 0.0265196 0
218 1 1 0.5 1 -10.5899 -11.2178 0
219 1 1 0.5 1 -1.94939 -4.20935 0
220 1 1 0.5 1 -13.438 12.5379 0
221 1 1 0.5 1 -7.13525 13.0979 0
222 1 1 0.5 1 -14.5319 -10.7682 0
223 1 1 0.5 1 14.2432 -10.2662 0
224 1 1 0.5 1 -1.77098 -10.623 0
225 1 1 0.5 1 -4.88424 5.07513 0
226 1 1 0.5 1 -11.9546 11.4553 0
227 1 1 0.5 1 -9.54612 11.9934 0
228 1 1 0.5 1 13.2989 -0.65657 0
229 1 1 0.5 1 -1.85584 9.47418 0
230 1 1 0.5 1 -2.91634 6.00189 0
231 1 1 0.5 1 -11.8483 12.8564 0
232 1 1 0.5 1 7.7254 13.3874 0
233 2 1 0.5 1 1.74834 14.6015 0
234 1 1 0.5 1 -11.9157 9.10025 0
235 1 1 0.5 1 -14.8617 5.03721 0
236 1 1 0.5 1 12.5741 -8.31722 0
237 1 1 0.5 1 -12.154 -1.01316 0
238 1 1 0.5 1 4.85707 6.18081 0
239 2 1 0.5 1 -7.3894 14.6899 0
240 1 1 0.5 1 -6.89128 -6.2176 0
241 1 1 0.5 1 -11.7143 -8.96881 0
242 1 1 0.5 1 12.8134 12.3442 0
243 1 1 0.5 1 -5.51147 11.0375 0
244 1 1 0.5 1 -6.68174 11.6894 0
245 1 1 0.5 1 4.0069 3.92404 0
246 1 1 0.5 1 -5.55085 -2.93825 0
247 1 1 0.5 1 8.81916 12.4 0
248 1 1 0.5 1 8.1314 -4.25822 0
249 1 1 0.5 1 6.17801 7.87881 0
250 1 1 0.5 1 6.25289 -3.106 0
251 1 1 0.5 1 -13.9327 2.02545 0
252 1 1 0.5 1 -8.93491 0.371887 0
253 1 1 0.5 1 1.44782 -3.29572 0
254 1 1 0.5 1 -8.18166 -5.89299 0
255 2 1 0.5 1 12.2294 14.7654 0
256 1 1 0.5 1 -11.7877 -6.0967 0
257 1 1 0.5 1 2.93448 -3.62016 0
258 1 1 0.5 1 10.166 -7.74337 0
259 1 1 0.5 1 -0.918879 -9.9727 0
260 1 1 0.5 1 -2.92471 4.94066 0
261 2 1 0.5 1 11.2538 14.267 0
262 1 1 0.5 1 -13.0719 1.26341 0
263 1 1 0.5 1 -5.44681 1.10218 0
264 1 1 0.5 1 10.0929 -4.97962 0
265 1 1 0.5 1 3.03358 2.5472 0
266 1 1 0.5 1 14.3839 -12.7103 0
267 1 1 0.5 1 10.0946 -12.6329 0
268 1 1 0.5 1 1.79893 7.27159 0
269 1 1 0.5 1 3.27714 -9.4842 0
270 1 1 0.5 1 5.47716 -9.43619 0
271 1 1 0.5 1 -14.9101 8.27486 0
272 1 1 0.5 1 3.38264 10.7344 0
273 1 1 0.5 1 14.246 2.36663 0
274 1 1 0.5 1 7.04034 -12.7374 0
275 1 1 0.5 1 9.58149 13.6485 0
276 1 1 0.5 1 -14.6743 12.9916 0
277 1 1 0.5 1 -14.6491 -8.00494 0
278 1 1 0.5 1 -1.55378 -2.50712 0
279 1 1 0.5 1 1.35915 2.59718 0
280 1 1 0.5 1 5.73256 -6.78313 0
281 1 1 0.5 1 13.7202 3.65442 0
282 1 1 0.5 1 -3.71149 7.90665 0
283 1 1 0.5 1 -8.00765 -13.0343 0
284 1 1 0.5 1 9.20264 -11.8767 0
285 1 1 0.5 1 5.6418 9.63053 0
286 1 1 0.5 1 4.83133 8.69563 0
287 1 1 0.5 1 -14.9268 -9.34808 0
288 1 1 0.5 1 10.8736 3.29985 0
289 1 1 0.5 1 -6.40722 -3.55012 0
290 1 1 0.5 1 3.05153 -7.49467 0
291 1 1 0.5 1 -10.0566 5.32619 0
292 1 1 0.5 1 -1.47926 5.08729 0
293 1 1 0.5 1 -10.1341 -7.17217 0
294 1 1 0.5 1 -6.45135 -10.6855 0
295 1 1 0.5 1 -2.59319 -5.25337 0
296 1 1 0.5 1 -12.9012 3.0294 0
297 1 1 0.5 1 -1.34718 -5.5867 0
298 1 1 0.5 1 -10.1691 2.00218 0
299 1 1 0.5 1 -14.4271 6.40139 0
300 1 1 0.5 1 -4.61552 12.8385 0
301 1 1 0.5 1 -13.0118 -9.3285 0
302 1 1 0.5 1 -11.4851 -12.4114 0
303 1 1 0.5 1 -11.4746 6.45149 0
304 1 1 0.5 1 6.74139 -6.50009 0
305 1 1 0.5 1 6.49847 -11.886 0
306 1 1 0.5 1 -9.79737 3.2992 0
307 1 1 0.5 1 1.30726 -6.41387 0
308 1 1 0.5 1 14.4416 -5.24329 0
309 1 1 0.5 1 12.4726 10.0831 0
310 1 1 0.5 1 -14.9055 -1.60625 0
311 1 1 0.5 1 12.8689 -11.6322 0
312 1 1 0.5 1 10.3051 -1.86168 0
313 1 1 0.5 1 -5.8441 2.20633 0
314 1 1 0.5 1 4.19907 1.37363 0
315 1 1 0.5 1 -7.02813 2.09166 0
316 1 1 0.5 1 -5.81258 -13.3564 0
317 1 1 0.5 1 13.4898 8.13937 0
318 1 1 0.5 1 8.46019 -2.14847 0
319 1 1 0.5 1 -14.609 -0.153993 0
320 1 1 0.5 1 6.85735 11.9775 0
321 1 1 0.5 1 -2.7145 1.78096 0
322 1 1 0.5 1 11.6215 1.68462 0
323 1 1 0.5 1 2.25425 11.4238 0
324 1 1 0.5 1 14.8982 8.37969 0
325 1 1 0.5 1 -2.96657 -12.0317 0
326 1 1 0.5 1 -13.1814 8.36447 0
327 1 1 0.5 1 0.519859 3.71967 0
328 1 1 0.5 1 -0.713401 7.05382 0
329 1 1 0.5 1 -1.5693 8.45674 0
330 1 1 0.5 1 3.87406 -11.7279 0
331 1 1 0.5 1 9.62094 4.90401 0
332 2 1 0.5 1 9.3363 14.964 0
333 1 1 0.5 1 -3.75766 -1.29187 0
334 1 1 0.5 1 -7.42989 -4.36604 0
335 1 1 0.5 1 -5.83212 7.29646 0
336 1 1 0.5 1 14.7072 -0.968492 0
337 2 1 0.5 1 13.2704 -14.393 0
338 1 1 0.5 1 -13.8648 9.42665 0
339 1 1 0.5 1 6.8035 10.4416 0
340 1 1 0.5 1 1.55941 -2.08075 0
341 1 1 0.5 1 7.89209 -13.7204 0
342 1 1 0.5 1 7.34213 -10.7571 0
343 1 1 0.5 1 -6.75547 8.10342 0
344 1 1 0.5 1 -0.342268 13.1818 0
345 1 1 0.5 1 6.25629 -10.5107 0
346 1 1 0.5 1 -9.79722 -5.30613 0
347 1 1 0.5 1 10.5703 0.717608 0
348 2 1 0.5 1 -7.76299 -14.8565 0
349 2 1 0.5 1 9.12606 -14.7708 0
350 1 1 0.5 1 -9.26971 4.30473 0
351 1 1 0.5 1 2.02897 -7.47479 0
352 1 1 0.5 1 -7.9102 -1.76462 0
353 1 1 0.5 1 9.05335 9.14785 0
354 1 1 0.5 1 1.05137 -9.41931 0
355 1 1 0.5 1 -11.9533 2.12284 0
356 1 1 0.5 1 4.97012 -2.89941 0
357 1 1 0.5 1 8.21374 -1.10363 0
358 1 1 0.5 1 -12.5201 10.1528 0
359 2 1 0.5 1 -14.9843 -14.4293 0
360 1 1 0.5 1 -9.93389 10.3049 0
361 1 1 0.5 1 2.76808 13.9085 0
362 1 1 0.5 1 7.36557 5.27537 0
363 1 1 0.5 1 -14.6483 -12.8845 0
364 2 1 0.5 1 2.71455 14.9898 0
365 1 1 0.5 1 3.06483 4.98995 0
366 1 1 0.5 1 7.53152 0.726431 0
367 2 1 0.5 1 -12.0404 -14.8615 0
368 1 1 0.5 1 13.4806 1.01394 0
369 1 1 0.5 1 5.2304 -3.90615 0
370 1 1 0.5 1 -0.203836 9.00224 0
371 1 1 0.5 1 13.3214 -9.50566 0
372 1 1 0.5 1 -8.54564 6.87505 0
373 1 1 0.5 1 1.61353 1.03013 0
374 2 1 0.5 1 6.53385 -14.2787 0
375 2 1 0.5 1 13.3807 14.3815 0
376 1 1 0.5 1 11.8553 -10.7506 0
377 1 1 0.5 1 -14.1112 11.2842 0
378 1 1 0.5 1 -12.6237 0.0531621 0
379 1 1 0.5 1 11.6645 6.07937 0
380 1 1 0.5 1 14.9802 6.49214 0
381 1 1 0.5 1 11.0708 -10.0119 0
382 1 1 0.5 1 13.9567 6.21505 0
383 1 1 0.5 1 2.73393 -6.24033 0
384 1 1 0.5 1 12.8865 -10.42 0
385 1 1 0.5 1 -7.74584 -11.6109 0
386 1 1 0.5 1 -2.03055 -11.6358 0
387 2 1 0.5 1 14.9593 14.9073 0
388 1 1 0.5 1 0.791462 -13.4912 0
389 1 1 0.5 1 -11.6517 8.00497 0
390 2 1 0.5 1 7.59176 14.7325 0
391 1 1 0.5 1 -10.7212 12.4689 0
392 1 1 0.5 1 8.50586 -8.58602 0
393 1 1 0.5 1 -6.6927 6.63483 0
394 1 1 0.5 1 0.265626 6.65199 0
395 1 1 0.5 1 -8.26003 -3.23181 0
396 1 1 0.5 1 0.70276 -12.3567 0
397 1 1 0.5 1 0.852964 -1.28975 0
398 1 1 0.5 1 -14.5574 -3.26276 0
399 1 1 0.5 1 6.63646 3.6189 0
400 1 1 0.5 1 -6.26727 -7.29662 0
401 2 1 0.5 1 4.92266 14.8699 0
402 1 1 0.5 1 12.7022 -7.2158 0
403 1 1 0.5 1 11.4856 7.78729 0
404 1 1 0.5 1 -14.7777 1.32469 0
405 1 1 0.5 1 9.20252 -9.98263 0
406 1 1 0.5 1 14.0726 0.183545 0
407 2 1 0.5 1 -3.86919 14.9329 0
408 2 1 0.5 1 -2.14239 -14.4519 0
409 1 1 0.5 1 3.48259 7.19383 0
410 1 1 0.5 1 5.51786 12.6754 0
411 1 1 0.5 1 -4.20224 11.0388 0
412 1 1 0.5 1 7.4576 -2.35717 0
413 1 1 0.5 1 -7.61375 11.0416 0
414 1 1 0.5 1 -10.3224 6.35788 0
415 2 1 0.5 1 -0.492972 14.7748 0
416 1 1 0.5 1 4.36292 7.7419 0
417 1 1 0.5 1 -2.25404 -7.52956 0
418 1 1 0.5 1 8.58489 13.9611 0
419 1 1 0.5 1 5.10288 4.73684 0
420 1 1 0.5 1 9.04311 -5.17353 0
421 1 1 0.5 1 6.05148 0.104392 0
422 1 1 0.5 1 -8.24983 10.0411 0
423 2 1 0.5 1 -5.62738 -14.6056 0
424 1 1 0.5 1 4.10314 2.77142 0
425 1 1 0.5 1 4.16109 -7.24887 0
426 1 1 0.5 1 14.8132 3.76963 0
427 2 1 0.5 1 5.46584 -14.5335 0
428 1 1 0.5 1 -5.33175 -9.17515 0
429 1 1 0.5 1 8.46624 -10.7566 0
430 1 1 0.5 1 -10.7813 -8.43254 0
431 1 1 0.5 1 2.95391 -10.7607 0
432 1 1 0.5 1 -13.7742 -7.50736 0
433 1 1 0.5 1 -4.35217 6.6309 0
434 1 1 0.5 1 6.07475 -4.51422 0
435 1 1 0.5 1 3.51013 6.05949 0
436 1 1 0.5 1 9.03579 -3.69507 0
437 1 1 0.5 1 -10.2653 -0.499715 0
438 1 1 0.5 1 12.8771 -12.7432 0
439 1 1 0.5 1 12.4529 8.56563 0
440 1 1 0.5 1 14.3421 -9.24842 0
441 1 1 0.5 1 10.8341 4.52041 0
442 1 1 0.5 1 -9.25957 -3.98606 0
443 1 1 0.5 1 8.91758 -13.6488 0
444 1 1 0.5 1 -4.22787 -9.25838 0
445 1 1 0.5 1 0.230606 -10.0203 0
446 1 1 0.5 1 -3.13435 -13.3473 0
447 1 1 0.5 1 -12.5863 -4.25998 0
448 1 1 0.5 1 -2.00613 3.70771 0
449 1 1 0.5 1 14.6146 9.40164 0
450 1 1 0.5 1 0.732647 -5.13066 0
451 1 1 0.5 1 -11.5512 -10.1938 0
452 1 1 0.5 1 -13.4817 7.30845 0
453 1 1 0.5 1 4.74969 -1.46012 0
454 1 1 0.5 1 -3.3399 13.4417 0
455 1 1 0.5 1 7.12704 -0.427142 0
456 1 1 0.5 1 1.59678 4.76367 0
457 1 1 0.5 1 -14.5026 -11.8892 0
458 1 1 0.5 1 0.0397803 -7.15826 0
459 1 1 0.5 1 -4.64904 -11.3469 0
460 1 1 0.5 1 13.1387 11.1116 0
461 1 1 0.5 1 -8.42163 -6.87054 0
462 1 1 0.5 1 -6.34208 -8.5022 0
463 1 1 0.5 1 -3.12536 -4.23315 0
464 1 1 0.5 1 -12.7495 4.25079 0
465 1 1 0.5 1 2.66445 7.90532 0
466 1 1 0.5 1 12.6987 4.36581 0
467 1 1 0.5 1 7.76166 -6.95595 0
468 1 1 0.5 1 10.3015 1.96058 0
469 1 1 0.5 1 10.6752 -4.0778 0
470 1 1 0.5 1 5.45503 1.20256 0
471 1 1 0.5 1 -14.093 3.39617 0
472 1 1 0.5 1 9.38045 -1.36948 0
473 1 1 0.5 1 8.12931 7.08961 0
474 1 1 0.5 1 -3.99831 -12.1623 0
475 1 1 0.5 1 -7.50347 0.384495 0
476 2 1 0.5 1 12.242 -14.7911 0
477 1 1 0.5 1 -0.666639 -2.02853 0
478 1 1 0.5 1 2.2881 -1.34253 0
479 1 1 0.5 1 13.9735 -6.29701 0
480 1 1 0.5 1 -10.2659 -1.70691 0
481 1 1 0.5 1 -3.63765 9.77937 0
482 2 1 0.5 1 -1.71142 14.3581 0
483 1 1 0.5 1 2.7387 -13.4254 0
484 1 1 0.5 1 12.3799 -1.17031 0
485 1 1 0.5 1 -0.376902 -14.1578 0
486 1 1 0.5 1 3.4751 -0.693796 0
487 1 1 0.5 1 -4.70548 8.0434 0
488 1 1 0.5 1 5.90335 -8.40368 0
489 2 1 0.5 1 -14.6055 14.49 0
490 2 1 0.5 1 10.9697 -14.9578 0
491 1 1 0.5 1 14.8557 -2.63186 0
492 1 1 0.5 1 -10.9485 4.34548 0
493 1 1 0.5 1 -13.4996 -3.74047 0
494 1 1 0.5 1 4.99358 3.30785 0
495 1 1 0.5 1 3.31292 0.29587 0
496 1 1 0.5 1 -13.5745 -10.2918 0
497 1 1 0.5 1 -3.98498 2.53363 0
498 1 1 0.5 1 3.80767 -5.94739 0
499 1 1 0.5 1 -0.673557 -3.52176 0
500 1 1 0.5 1 -2.41409 -0.096904 0
501 1 1 0.5 1 11.3374 -7.82872 0
502 2 1 0.5 1 -8.37892 14.4515 0
503 1 1 0.5 1 14.9081 1.05176 0
504 1 1 0.5 1 -4.65943 -2.0053 0
505 1 1 0.5 1 5.48708 7.02198 0
506 1 1 0.5 1 9.85692 5.89328 0
507 1 1 0.5 1 -10.5596 11.4684 0
508 1 1 0.5 1 -8.77135 -10.085 0
509 1 1 0.5 1 -9.14351 13.4928 0
510 1 1 0.5 1 -0.281267 -12.8613 0
511 1 1 0.5 1 14.5539 13.701 0
512 1 1 0.5 1 -7.41053 5.70216 0
513 1 1 0.5 1 -11.8847 -7.24741 0
514 2 1 0.5 1 -10.6468 14.7295 0
515 1 1 0.5 1 10.4869 -0.46482 0
516 1 1 0.5 1 14.8711 12.6549 0
517 2 1 0.5 1 6.03874 14.8229 0
518 1 1 0.5 1 14.9112 10.4053 0
519 1 1 0.5 1 12.0641 -5.8137 0
520 1 1 0.5 1 -11.3166 10.1599 0
521 2 1 0.5 1 7.91076 -14.8302 0
522 1 1 0.5 1 -10.7845 -6.39549 0
523 1 1 0.5 1 2.50651 -8.72621 0
524 1 1 0.5 1 2.98018 3.81186 0
525 1 1 0.5 1 8.77108 3.53806 0
526 1 1 0.5 1 -14.751 -5.34218 0
527 1 1 0.5 1 1.812 10.4568 0
528 1 1 0.5 1 2.71312 -2.58269 0
529 1 1 0.5 1 -5.20751 -12.3904 0
530 1 1 0.5 1 13.311 -4.20169 0
531 1 1 0.5 1 -10.422 13.6072 0
532 1 1 0.5 1 -14.9424 2.53544 0
533 1 1 0.5 1 -11.6567 1.05449 0
534 1 1 0.5 1 -12.5982 -13.0799 0
535 1 1 0.5 1 11.368 -1.70044 0
536 1 1 0.5 1 12.44 0.0857772 0
537 1 1 0.5 1 3.6421 -8.51315 0
538 1 1 0.5 1 14.9491 -6.52731 0
539 2 1 0.5 1 -4.57585 -14.8112 0
540 1 1 0.5 1 14.9954 -4.09288 0
541 1 1 0.5 1 -6.53081 -1.36205 0
542 1 1 0.5 1 2.52516 6.44411 0
543 1 1 0.5 1 -14.9952 7.27602 0
544 1 1 0.5 1 -3.99484 5.67063 0
545 2 1 0.5 1 3.95858 14.5459 0
546 1 1 0.5 1 8.22128 -9.779 0
547 2 1 0.5 1 -13.1008 -14.9036 0
548 1 1 0.5 1 6.44179 9.02465 0
549 1 1 0.5 1 -13.4401 -11.3216 0
550 1 1 0.5 1 -9.48784 -6.38775 0
551 1 1 0.5 1 1.89767 -5.4107 0
552 1 1 0.5 1 -0.816596 4.08532 0
553 1 1 0.5 1 4.91725 -10.8709 0
554 1 1 0.5 1 -14.868 11.9584 0
555 1 1 0.5 1 8.93157 -7.3073 0
556 1 1 0.5 1 13.1208 -3.00089 0
557 1 1 0.5 1 -8.11206 8.54717 0
558 1 1 0.5 1 5.27505 13.7809 0
559 1 1 0.5 1 11.1704 10.0532 0
560 1 1 0.5 1 -8.55721 -4.92539 0
561 1 1 0.5 1 6.51224 6.86435 0
562 1 1 0.5 1 11.1411 11.8749 0
563 1 1 0.5 1 -2.86367 -3.2088 0
564 1 1 0.5 1 10.004 8.32772 0
565 1 1 0.5 1 -1.88513 2.6291 0
566 1 1 0.5 1 -6.48268 0.847267 0
567 1 1 0.5 1 4.14071 5.25993 0
568 1 1 0.5 1 3.09231 9.76794 0
569 1 1 0.5 1 -6.33669 -9.54458 0
570 1 1 0.5 1 11.7521 4.00759 0
571 1 1 0.5 1 -8.37664 -0.62425 0
572 1 1 0.5 1 -5.65042 -11.4839 0
573 1 1 0.5 1 -9.89192 0.809138 0
574 1 1 0.5 1 -2.74261 -8.42991 0
575 1 1 0.5 1 11.0754 -5.61681 0
576 1 1 0.5 1 -6.93417 -13.0256 0
577 1 1 0.5 1 -0.829802 9.87401 0
578 1 1 0.5 1 11.4748 -8.84414 0
579 2 1 0.5 1 0.258437 -14.9747 0
580 1 1 0.5 1 13.8641 7.21155 0
581 1 1 0.5 1 6.51042 1.04131 0
582 1 1 0.5 1 -9.17494 9.34274 0
583 2 1 0.5 1 0.718994 14.9707 0
584 1 1 0.5 1 -3.54586 -0.270259 0
585 1 1 0.5 1 1.25702 -0.00694385 0
586 1 1 0.5 1 14.9894 -13.5508 0
587 1 1 0.5 1 -0.394402 10.8333 0
588 1 1 0.5 1 0.942032 9.11869 0
589 1 1 0.5 1 8.41391 8.26635 0
590 1 1 0.5 1 13.8096 -8.33737 0
591 1 1 0.5 1 3.57881 -12.7125 0
592 1 1 0.5 1 -1.20485 -12.3016 0
593 1 1 0.5 1 8.60126 1.00929 0
594 1 1 0.5 1 -12.691 5.39387 0
595 1 1 0.5 1 -7.93447 1.28996 0
596 2 1 0.5 1 10.481 14.9073 0
597 1 1 0.5 1 -13.8794 -8.71999 0
598 1 1 0.5 1 5.71891 -2.02253 0
599 1 1 0.5 1 -1.672 7.34526 0
600 1 1 0.5 1 -5.82701 8.51782 0
601 1 1 0.5 1 11.7616 5.01253 0
602 1 1 0.5 1 -1.25479 1.5309 0
603 1 1 0.5 1 -12.5544 -10.4515 0
604 1 1 0.5 1 13.6155 -13.4437 0
605 1 1 0.5 1 -0.518296 5.47024 0
606 2 1 0.5 1 -8.79191 -14.892 0
607 1 1 0.5 1 -13.7497 -5.39212 0
608 1 1 0.5 1 -10.0822 -2.78243 0
609 1 1 0.5 1 -11.138 -1.02106 0
610 1 1 0.5 1 -5.3263 6.36667 0
611 1 1 0.5 1 -4.58679 0.431947 0
612 1 1 0.5 1 -3.95829 4.64855 0
613 1 1 0.5 1 8.20455 -0.0337404 0
614 1 1 0.5 1 1.83951 13.4893 0
615 1 1 0.5 1 -4.05154 8.86259 0
616 1 1 0.5 1 4.74002 -6.37539 0
617 1 1 0.5 1 -13.8619 -2.41462 0
618 2 1 0.5 1 -13.5046 14.9886 0
619 1 1 0.5 1 -6.31903 3.46914 0
620 1 1 0.5 1 -12.5276 13.7159 0
621 1 1 0.5 1 -1.64993 12.3531 0
622 1 1 0.5 1 10.9934 -2.70889 0
623 1 1 0.5 1 0.348176 12.4538 0
624 1 1 0.5 1 -14.9917 4.04542 0
625 1 1 0.5 1 -4.95601 11.8748 0
626 1 1 0.5 1 7.81294 12.3831 0
627 1 1 0.5 1 7.11181 -4.45835 0
628 2 1 0.5 1 -14.1393 -14.9669 0
629 1 1 0.5 1 10.4933 -11.6835 0
630 1 1 0.5 1 -3.24044 -7.33738 0
631 1 1 0.5 1 4.13896 -4.77776 0
632 1 1 0.5 1 4.51947 12.478 0
633 1 1 0.5 1 -13.4791 6.07379 0

Bonds

1 1 1 218
2 1 6 443
3 1 8 507
4 1 9 396
5 1 13 444
6 1 14 315
7 1 15 79
8 1 17 232
9 1 19 393
10 1 24 551
11 1 28 229
12 1 31 199
13 1 32 621
14 1 34 210
15 1 36 500
16 1 38 477
17 1 39 594
18 1 41 486
19 1 42 186
20 1 43 259
21 1 45 602
22 1 46 380
23 1 47 555
24 1 49 472
25 1 54 2
26 1 57 570
27 1 58 392
28 1 62 48
29 1 63 215
30 1 64 626
31 1 67 63
32 1 68 315
33 1 69 94
34 1 70 460
35 1 76 36
36 1 77 605
37 1 82 102
38 1 85 22
39 1 86 107
40 1 87 571
41 1 89 133
42 1 90 150
43 1 94 581
44 1 97 230
45 1 98 297
46 1 99 399
47 1 103 106
48 1 106 499
49 1 110 192
50 1 113 445
51 1 114 316
52 1 117 493
53 1 120 73
54 1 122 607
55 1 124 242
56 1 126 422
57 1 127 36
58 1 130 523
59 1 133 504
60 1 137 286
61 1 138 84
62 1 141 483
63 1 142 334
64 1 144 556
65 1 149 121
66 1 152 14
67 1 153 411
68 1 155 407
69 1 158 101
70 1 159 450
71 1 162 306
72 1 164 539
73 1 165 183
74 1 166 300
75 1 167 35
76 1 168 428
77 1 169 269
78 1 170 407
79 1 174 361
80 1 176 58
81 1 177 144
82 1 180 420
83 1 181 512
84 1 184 67
85 1 187 100
86 1 195 86
87 1 196 424
88 1 197 492
89 1 200 445
90 1 203 181
91 1 204 275
92 1 205 607
93 1 208 408
94 1 211 334
95 1 213 518
96 1 214 491
97 1 217 566
98 1 223 590
99 1 228 26
100 1 230 292
101 1 231 120
102 1 232 247
103 1 234 520
104 1 235 27
105 1 236 116
106 1 237 60
107 1 239 16
108 1 240 461
109 1 241 513
110 1 242 562
111 1 245 419
112 1 247 626
113 1 251 532
114 1 253 106
115 1 255 186
116 1 256 513
117 1 257 528
118 1 263 611
119 1 266 438
120 1 276 377
121 1 282 481
122 1 283 10
123 1 285 184
124 1 287 277
125 1 289 334
126 1 293 85
127 1 298 162
128 1 302 534
129 1 304 25
130 1 306 68
131 1 308 538
132 1 310 104
133 1 311 223
134 1 313 76
135 1 316 576
136 1 318 357
137 1 319 104
138 1 320 184
139 1 321 36
140 1 322 368
141 1 324 317
142 1 325 118
143 1 326 234
144 1 327 138
145 1 328 605
146 1 331 525
147 1 335 19
148 1 337 438
149 1 338 143
150 1 340 103
151 1 343 29
152 1 344 482
153 1 346 442
154 1 350 203
155 1 351 307
156 1 353 35
157 1 354 130
158 1 355 251
159 1 356 434
160 1 359 5
161 1 361 50
162 1 363 359
163 1 365 84
164 1 367 5
165 1 369 598
166 1 371 590
167 1 373 187
168 1 374 521
169 1 375 387
170 1 376 384
171 1 377 358
172 1 378 319
173 1 379 441
174 1 382 46
175 1 383 290
176 1 385 283
177 1 386 200
178 1 388 510
179 1 389 92
180 1 390 517
181 1 391 231
182 1 392 555
183 1 394 328
184 1 397 340
185 1 415 482
186 1 416 409
187 1 418 390
188 1 419 99
189 1 428 462
190 1 429 147
191 1 432 301
192 1 433 97
193 1 436 264
194 1 437 573
195 1 438 311
196 1 439 317
197 1 441 601
198 1 443 341
199 1 445 259
200 1 448 292
201 1 450 307
202 1 451 182
203 1 452 39
204 1 454 482
205 1 459 529
206 1 460 242
207 1 461 550
208 1 462 202
209 1 467 180
210 1 471 624
211 1 473 150
212 1 475 129
213 1 476 337
214 1 477 397
215 1 479 123
216 1 480 609
217 1 482 71
218 1 483 88
219 1 484 177
220 1 485 146
221 1 486 100
222 1 488 169
223 1 492 306
224 1 497 107
225 1 498 616
226 1 506 90
227 1 507 227
228 1 509 531
229 1 510 140
230 1 513 293
231 1 514 172
232 1 515 535
233 1 518 449
234 1 519 575
235 1 522 550
236 1 525 94
237 1 529 316
238 1 530 540
239 1 531 391
240 1 535 49
241 1 536 484
242 1 537 169
243 1 540 491
244 1 544 230
245 1 552 132
246 1 555 175
247 1 556 177
248 1 557 210
249 1 559 216
250 1 560 334
251 1 561 473
252 1 563 278
253 1 568 96
254 1 570 466
255 1 571 252
256 1 576 529
257 1 577 329
258 1 578 381
259 1 586 337
260 1 587 121
261 1 589 353
262 1 591 330
263 1 592 224
264 1 593 468
265 1 594 303
266 1 596 261
267 1 599 28
268 1 600 15
269 1 601 379
270 1 603 301
271 1 604 438
272 1 605 394
273 1 611 76
274 1 612 230
275 1 614 364
276 1 615 481
277 1 617 212
278 1 618 20
279 1 619 315
280 1 620 120
281 1 622 535
282 1 626 232
283 1 629 267
284 1 630 188
285 1 633 27
286 1 2 6
287 1 3 454
288 1 5 139
289 1 6 267
290 1 8 360
291 1 10 576
292 1 14 162
293 1 16 11
294 1 17 390
295 1 20 172
296 1 21 327
297 1 22 462
298 1 24 450
299 1 26 515
300 1 30 185
301 1 32 153
302 1 33 564
303 1 34 389
304 1 35 589
305 1 37 169
306 1 38 563
307 1 43 113
308 1 48 421
309 1 49 436
310 1 51 443
311 1 54 476
312 1 55 440
313 1 56 218
314 1 57 322
315 1 61 145
316 1 63 323
317 1 64 247
318 1 65 190
319 1 67 323
320 1 68 350
321 1 69 525
322 1 70 559
323 1 71 454
324 1 74 317
325 1 82 597
326 1 83 65
327 1 84 435
328 1 85 198
329 1 87 480
330 1 89 504
331 1 91 105
332 1 98 75
333 1 99 362
334 1 100 495
335 1 102 122
336 1 105 588
337 1 107 313
338 1 111 575
339 1 116 590
340 1 117 61
341 1 118 459
342 1 123 112
343 1 125 621
344 1 128 607
345 1 129 252
346 1 131 525
347 1 134 94
348 1 137 194
349 1 139 154
350 1 144 228
351 1 145 117
352 1 146 388
353 1 150 362
354 1 154 302
355 1 155 482
356 1 157 240
357 1 158 379
358 1 160 423
359 1 162 595
360 1 166 16
361 1 168 572
362 1 171 448
363 1 172 618
364 1 173 307
365 1 175 467
366 1 176 467
367 1 177 228
368 1 178 193
369 1 179 98
370 1 180 264
371 1 181 350
372 1 184 194
373 1 189 156
374 1 192 383
375 1 194 285
376 1 196 581
377 1 199 12
378 1 200 163
379 1 201 153
380 1 202 294
381 1 204 247
382 1 205 122
383 1 206 574
384 1 208 539
385 1 209 65
386 1 211 395
387 1 215 545
388 1 221 81
389 1 223 371
390 1 226 220
391 1 227 8
392 1 228 536
393 1 231 507
394 1 232 390
395 1 234 389
396 1 237 191
397 1 240 400
398 1 241 301
399 1 242 42
400 1 244 126
401 1 246 178
402 1 248 627
403 1 249 505
404 1 250 412
405 1 253 528
406 1 254 334
407 1 255 261
408 1 256 205
409 1 261 186
410 1 266 109
411 1 267 147
412 1 270 58
413 1 271 543
414 1 272 527
415 1 273 503
416 1 274 51
417 1 278 38
418 1 281 158
419 1 283 1
420 1 285 286
421 1 287 222
422 1 288 601
423 1 289 142
424 1 290 425
425 1 291 350
426 1 296 251
427 1 297 159
428 1 305 274
429 1 310 319
430 1 311 2
431 1 312 472
432 1 318 183
433 1 320 339
434 1 323 527
435 1 327 83
436 1 336 406
437 1 337 54
438 1 340 253
439 1 343 393
440 1 344 174
441 1 350 492
442 1 358 520
443 1 360 92
444 1 364 545
445 1 365 245
446 1 373 65
447 1 376 311
448 1 380 580
449 1 381 629
450 1 382 101
451 1 384 311
452 1 386 224
453 1 387 511
454 1 389 39
455 1 390 332
456 1 391 507
457 1 394 268
458 1 396 200
459 1 399 72
460 1 400 75
461 1 403 33
462 1 404 251
463 1 410 67
464 1 411 3
465 1 412 598
466 1 416 465
467 1 419 567
468 1 421 4
469 1 423 164
470 1 426 281
471 1 430 293
472 1 431 269
473 1 433 19
474 1 438 109
475 1 439 309
476 1 440 371
477 1 441 331
478 1 442 608
479 1 445 163
480 1 446 208
481 1 454 300
482 1 459 474
483 1 460 309
484 1 461 254
485 1 463 133
486 1 469 49
487 1 471 235
488 1 473 90
489 1 476 490
490 1 477 278
491 1 480 60
492 1 483 108
493 1 485 408
494 1 486 62
495 1 487 615
496 1 489 20
497 1 492 291
498 1 493 398
499 1 495 62
500 1 497 321
501 1 499 219
502 1 501 111
503 1 502 73
504 1 503 406
505 1 505 238
506 1 506 441
507 1 509 514
508 1 520 92
509 1 525 72
510 1 527 121
511 1 531 73
512 1 534 31
513 1 538 116
514 1 544 97
515 1 547 367
516 1 548 286
517 1 549 457
518 1 550 346
519 1 551 383
520 1 552 565
521 1 554 276
522 1 562 559
523 1 566 315
524 1 569 202
525 1 572 474
526 1 574 444
527 1 575 175
528 1 576 114
529 1 577 587
530 1 579 485
531 1 580 317
532 1 584 333
533 1 592 140
534 1 593 94
535 1 594 633
536 1 595 252
537 1 600 487
538 1 601 158
539 1 602 321
540 1 603 451
541 1 609 237
542 1 611 333
543 1 613 94
544 1 614 583
545 1 616 280
546 1 618 620
547 1 619 14
548 1 620 20
549 1 629 284
550 1 631 192
551 1 632 184
552 1 1 10
553 1 7 404
554 1 8 422
555 1 11 170
556 1 15 243
557 1 17 626
558 1 18 384
559 1 22 569
560 1 26 322
561 1 27 471
562 1 28 282
563 1 29 512
564 1 30 307
565 1 31 547
566 1 36 497
567 1 37 537
568 1 38 190
569 1 39 115
570 1 40 462
571 1 43 417
572 1 44 220
573 1 47 405
574 1 48 455
575 1 49 318
576 1 52 408
577 1 53 322
578 1 57 466
579 1 65 585
580 1 69 72
581 1 70 562
582 1 71 155
583 1 73 509
584 1 75 179
585 1 76 584
586 1 80 192
587 1 81 502
588 1 86 171
589 1 91 394
590 1 92 34
591 1 95 427
592 1 96 91
593 1 98 188
594 1 99 567
595 1 100 340
596 1 105 328
597 1 109 207
598 1 110 369
599 1 111 519
600 1 112 530
601 1 113 458
602 1 119 87
603 1 122 526
604 1 127 333
605 1 128 526
606 1 130 431
607 1 131 468
608 1 133 246
609 1 134 421
610 1 138 552
611 1 140 446
612 1 143 271
613 1 145 447
614 1 146 579
615 1 147 2
616 1 148 347
617 1 154 451
618 1 157 75
619 1 159 499
620 1 161 622
621 1 163 9
622 1 164 208
623 1 167 353
624 1 168 569
625 1 174 623
626 1 175 180
627 1 181 152
628 1 183 434
629 1 184 339
630 1 186 242
631 1 192 257
632 1 193 571
633 1 196 494
634 1 197 298
635 1 198 40
636 1 201 577
637 1 203 512
638 1 205 513
639 1 210 582
640 1 212 237
641 1 213 124
642 1 214 308
643 1 215 67
644 1 216 439
645 1 218 154
646 1 220 377
647 1 221 239
648 1 222 549
649 1 223 440
650 1 224 118
651 1 229 481
652 1 232 320
653 1 236 590
654 1 244 243
655 1 245 494
656 1 246 541
657 1 247 275
658 1 248 420
659 1 249 285
660 1 255 596
661 1 256 145
662 1 259 224
663 1 261 275
664 1 269 130
665 1 271 326
666 1 273 368
667 1 276 489
668 1 277 597
669 1 278 190
670 1 280 304
671 1 282 615
672 1 283 160
673 1 286 194
674 1 288 148
675 1 290 169
676 1 291 414
677 1 292 552
678 1 293 550
679 1 294 385